# Time ............. [Fri Jul 14 11:11:34 2017]
# resourcesInitial . [100]
# areaPatch ........ [50]
# agentCount ....... [1]
# consumptionRateMax [50]
# areaForaging ..... [1]
# maxTimesteps ..... [200]
# =========================================================

# Time    Density    A_Eff      R_ga       R_gt       Remain     Foraged    Percentage
0000      000.000    000.000    000.000    000.000    100.000    000.000    000.000
0001      002.000    001.000    002.000    002.000    098.000    002.000    0.02000
0002      001.960    001.000    001.960    001.960    096.040    003.960    0.03960
0003      001.921    001.000    001.921    001.921    094.119    005.881    0.05881
0004      001.882    001.000    001.882    001.882    092.237    007.763    0.07763
0005      001.845    001.000    001.845    001.845    090.392    009.608    0.09608
0006      001.808    001.000    001.808    001.808    088.584    011.416    0.11416
0007      001.772    001.000    001.772    001.772    086.813    013.187    0.13187
0008      001.736    001.000    001.736    001.736    085.076    014.924    0.14924
0009      001.702    001.000    001.702    001.702    083.375    016.625    0.16625
0010      001.667    001.000    001.667    001.667    081.707    018.293    0.18293
0011      001.634    001.000    001.634    001.634    080.073    019.927    0.19927
0012      001.601    001.000    001.601    001.601    078.472    021.528    0.21528
0013      001.569    001.000    001.569    001.569    076.902    023.098    0.23098
0014      001.538    001.000    001.538    001.538    075.364    024.636    0.24636
0015      001.507    001.000    001.507    001.507    073.857    026.143    0.26143
0016      001.477    001.000    001.477    001.477    072.380    027.620    0.27620
0017      001.448    001.000    001.448    001.448    070.932    029.068    0.29068
0018      001.419    001.000    001.419    001.419    069.514    030.486    0.30486
0019      001.390    001.000    001.390    001.390    068.123    031.877    0.31877
0020      001.362    001.000    001.362    001.362    066.761    033.239    0.33239
0021      001.335    001.000    001.335    001.335    065.426    034.574    0.34574
0022      001.309    001.000    001.309    001.309    064.117    035.883    0.35883
0023      001.282    001.000    001.282    001.282    062.835    037.165    0.37165
0024      001.257    001.000    001.257    001.257    061.578    038.422    0.38422
0025      001.232    001.000    001.232    001.232    060.346    039.654    0.39654
0026      001.207    001.000    001.207    001.207    059.140    040.860    0.40860
0027      001.183    001.000    001.183    001.183    057.957    042.043    0.42043
0028      001.159    001.000    001.159    001.159    056.798    043.202    0.43202
0029      001.136    001.000    001.136    001.136    055.662    044.338    0.44338
0030      001.113    001.000    001.113    001.113    054.548    045.452    0.45452
0031      001.091    001.000    001.091    001.091    053.457    046.543    0.46543
0032      001.069    001.000    001.069    001.069    052.388    047.612    0.47612
0033      001.048    001.000    001.048    001.048    051.341    048.659    0.48659
0034      001.027    001.000    001.027    001.027    050.314    049.686    0.49686
0035      001.006    001.000    001.006    001.006    049.307    050.693    0.50693
0036      000.986    001.000    000.986    000.986    048.321    051.679    0.51679
0037      000.966    001.000    000.966    000.966    047.355    052.645    0.52645
0038      000.947    001.000    000.947    000.947    046.408    053.592    0.53592
0039      000.928    001.000    000.928    000.928    045.480    054.520    0.54520
0040      000.910    001.000    000.910    000.910    044.570    055.430    0.55430
0041      000.891    001.000    000.891    000.891    043.679    056.321    0.56321
0042      000.874    001.000    000.874    000.874    042.805    057.195    0.57195
0043      000.856    001.000    000.856    000.856    041.949    058.051    0.58051
0044      000.839    001.000    000.839    000.839    041.110    058.890    0.58890
0045      000.822    001.000    000.822    000.822    040.288    059.712    0.59712
0046      000.806    001.000    000.806    000.806    039.482    060.518    0.60518
0047      000.790    001.000    000.790    000.790    038.692    061.308    0.61308
0048      000.774    001.000    000.774    000.774    037.919    062.081    0.62081
0049      000.758    001.000    000.758    000.758    037.160    062.840    0.62840
0050      000.743    001.000    000.743    000.743    036.417    063.583    0.63583
0051      000.728    001.000    000.728    000.728    035.689    064.311    0.64311
0052      000.714    001.000    000.714    000.714    034.975    065.025    0.65025
0053      000.699    001.000    000.699    000.699    034.275    065.725    0.65725
0054      000.686    001.000    000.686    000.686    033.590    066.410    0.66410
0055      000.672    001.000    000.672    000.672    032.918    067.082    0.67082
0056      000.658    001.000    000.658    000.658    032.260    067.740    0.67740
0057      000.645    001.000    000.645    000.645    031.614    068.386    0.68386
0058      000.632    001.000    000.632    000.632    030.982    069.018    0.69018
0059      000.620    001.000    000.620    000.620    030.363    069.637    0.69637
0060      000.607    001.000    000.607    000.607    029.755    070.245    0.70245
0061      000.595    001.000    000.595    000.595    029.160    070.840    0.70840
0062      000.583    001.000    000.583    000.583    028.577    071.423    0.71423
0063      000.572    001.000    000.572    000.572    028.005    071.995    0.71995
0064      000.560    001.000    000.560    000.560    027.445    072.555    0.72555
0065      000.549    001.000    000.549    000.549    026.896    073.104    0.73104
0066      000.538    001.000    000.538    000.538    026.359    073.641    0.73641
0067      000.527    001.000    000.527    000.527    025.831    074.169    0.74169
0068      000.517    001.000    000.517    000.517    025.315    074.685    0.74685
0069      000.506    001.000    000.506    000.506    024.808    075.192    0.75192
0070      000.496    001.000    000.496    000.496    024.312    075.688    0.75688
0071      000.486    001.000    000.486    000.486    023.826    076.174    0.76174
0072      000.477    001.000    000.477    000.477    023.349    076.651    0.76651
0073      000.467    001.000    000.467    000.467    022.883    077.117    0.77117
0074      000.458    001.000    000.458    000.458    022.425    077.575    0.77575
0075      000.448    001.000    000.448    000.448    021.976    078.024    0.78024
0076      000.440    001.000    000.440    000.440    021.537    078.463    0.78463
0077      000.431    001.000    000.431    000.431    021.106    078.894    0.78894
0078      000.422    001.000    000.422    000.422    020.684    079.316    0.79316
0079      000.414    001.000    000.414    000.414    020.270    079.730    0.79730
0080      000.405    001.000    000.405    000.405    019.865    080.135    0.80135
0081      000.397    001.000    000.397    000.397    019.468    080.532    0.80532
0082      000.389    001.000    000.389    000.389    019.078    080.922    0.80922
0083      000.382    001.000    000.382    000.382    018.697    081.303    0.81303
0084      000.374    001.000    000.374    000.374    018.323    081.677    0.81677
0085      000.366    001.000    000.366    000.366    017.956    082.044    0.82044
0086      000.359    001.000    000.359    000.359    017.597    082.403    0.82403
0087      000.352    001.000    000.352    000.352    017.245    082.755    0.82755
0088      000.345    001.000    000.345    000.345    016.900    083.100    0.83100
0089      000.338    001.000    000.338    000.338    016.562    083.438    0.83438
0090      000.331    001.000    000.331    000.331    016.231    083.769    0.83769
0091      000.325    001.000    000.325    000.325    015.906    084.094    0.84094
0092      000.318    001.000    000.318    000.318    015.588    084.412    0.84412
0093      000.312    001.000    000.312    000.312    015.277    084.723    0.84723
0094      000.306    001.000    000.306    000.306    014.971    085.029    0.85029
0095      000.299    001.000    000.299    000.299    014.672    085.328    0.85328
0096      000.293    001.000    000.293    000.293    014.378    085.622    0.85622
0097      000.288    001.000    000.288    000.288    014.091    085.909    0.85909
0098      000.282    001.000    000.282    000.282    013.809    086.191    0.86191
0099      000.276    001.000    000.276    000.276    013.533    086.467    0.86467
0100      000.271    001.000    000.271    000.271    013.262    086.738    0.86738
0101      000.265    001.000    000.265    000.265    012.997    087.003    0.87003
0102      000.260    001.000    000.260    000.260    012.737    087.263    0.87263
0103      000.255    001.000    000.255    000.255    012.482    087.518    0.87518
0104      000.250    001.000    000.250    000.250    012.232    087.768    0.87768
0105      000.245    001.000    000.245    000.245    011.988    088.012    0.88012
0106      000.240    001.000    000.240    000.240    011.748    088.252    0.88252
0107      000.235    001.000    000.235    000.235    011.513    088.487    0.88487
0108      000.230    001.000    000.230    000.230    011.283    088.717    0.88717
0109      000.226    001.000    000.226    000.226    011.057    088.943    0.88943
0110      000.221    001.000    000.221    000.221    010.836    089.164    0.89164
0111      000.217    001.000    000.217    000.217    010.619    089.381    0.89381
0112      000.212    001.000    000.212    000.212    010.407    089.593    0.89593
0113      000.208    001.000    000.208    000.208    010.199    089.801    0.89801
0114      000.204    001.000    000.204    000.204    009.995    090.005    0.90005
0115      000.200    001.000    000.200    000.200    009.795    090.205    0.90205
0116      000.196    001.000    000.196    000.196    009.599    090.401    0.90401
0117      000.192    001.000    000.192    000.192    009.407    090.593    0.90593
0118      000.188    001.000    000.188    000.188    009.219    090.781    0.90781
0119      000.184    001.000    000.184    000.184    009.034    090.966    0.90966
0120      000.181    001.000    000.181    000.181    008.854    091.146    0.91146
0121      000.177    001.000    000.177    000.177    008.677    091.323    0.91323
0122      000.174    001.000    000.174    000.174    008.503    091.497    0.91497
0123      000.170    001.000    000.170    000.170    008.333    091.667    0.91667
0124      000.167    001.000    000.167    000.167    008.166    091.834    0.91834
0125      000.163    001.000    000.163    000.163    008.003    091.997    0.91997
0126      000.160    001.000    000.160    000.160    007.843    092.157    0.92157
0127      000.157    001.000    000.157    000.157    007.686    092.314    0.92314
0128      000.154    001.000    000.154    000.154    007.532    092.468    0.92468
0129      000.151    001.000    000.151    000.151    007.382    092.618    0.92618
0130      000.148    001.000    000.148    000.148    007.234    092.766    0.92766
0131      000.145    001.000    000.145    000.145    007.090    092.910    0.92910
0132      000.142    001.000    000.142    000.142    006.948    093.052    0.93052
0133      000.139    001.000    000.139    000.139    006.809    093.191    0.93191
0134      000.136    001.000    000.136    000.136    006.673    093.327    0.93327
0135      000.133    001.000    000.133    000.133    006.539    093.461    0.93461
0136      000.131    001.000    000.131    000.131    006.408    093.592    0.93592
0137      000.128    001.000    000.128    000.128    006.280    093.720    0.93720
0138      000.126    001.000    000.126    000.126    006.155    093.845    0.93845
0139      000.123    001.000    000.123    000.123    006.031    093.969    0.93969
0140      000.121    001.000    000.121    000.121    005.911    094.089    0.94089
0141      000.118    001.000    000.118    000.118    005.793    094.207    0.94207
0142      000.116    001.000    000.116    000.116    005.677    094.323    0.94323
0143      000.114    001.000    000.114    000.114    005.563    094.437    0.94437
0144      000.111    001.000    000.111    000.111    005.452    094.548    0.94548
0145      000.109    001.000    000.109    000.109    005.343    094.657    0.94657
0146      000.107    001.000    000.107    000.107    005.236    094.764    0.94764
0147      000.105    001.000    000.105    000.105    005.131    094.869    0.94869
0148      000.103    001.000    000.103    000.103    005.029    094.971    0.94971
0149      000.101    001.000    000.101    000.101    004.928    095.072    0.95072
0150      000.099    001.000    000.099    000.099    004.830    095.170    0.95170
0151      000.097    001.000    000.097    000.097    004.733    095.267    0.95267
0152      000.095    001.000    000.095    000.095    004.638    095.362    0.95362
0153      000.093    001.000    000.093    000.093    004.546    095.454    0.95454
0154      000.091    001.000    000.091    000.091    004.455    095.545    0.95545
0155      000.089    001.000    000.089    000.089    004.366    095.634    0.95634
0156      000.087    001.000    000.087    000.087    004.278    095.722    0.95722
0157      000.086    001.000    000.086    000.086    004.193    095.807    0.95807
0158      000.084    001.000    000.084    000.084    004.109    095.891    0.95891
0159      000.082    001.000    000.082    000.082    004.027    095.973    0.95973
0160      000.081    001.000    000.081    000.081    003.946    096.054    0.96054
0161      000.079    001.000    000.079    000.079    003.867    096.133    0.96133
0162      000.077    001.000    000.077    000.077    003.790    096.210    0.96210
0163      000.076    001.000    000.076    000.076    003.714    096.286    0.96286
0164      000.074    001.000    000.074    000.074    003.640    096.360    0.96360
0165      000.073    001.000    000.073    000.073    003.567    096.433    0.96433
0166      000.071    001.000    000.071    000.071    003.496    096.504    0.96504
0167      000.070    001.000    000.070    000.070    003.426    096.574    0.96574
0168      000.069    001.000    000.069    000.069    003.357    096.643    0.96643
0169      000.067    001.000    000.067    000.067    003.290    096.710    0.96710
0170      000.066    001.000    000.066    000.066    003.224    096.776    0.96776
0171      000.064    001.000    000.064    000.064    003.160    096.840    0.96840
0172      000.063    001.000    000.063    000.063    003.097    096.903    0.96903
0173      000.062    001.000    000.062    000.062    003.035    096.965    0.96965
0174      000.061    001.000    000.061    000.061    002.974    097.026    0.97026
0175      000.059    001.000    000.059    000.059    002.914    097.086    0.97086
0176      000.058    001.000    000.058    000.058    002.856    097.144    0.97144
0177      000.057    001.000    000.057    000.057    002.799    097.201    0.97201
0178      000.056    001.000    000.056    000.056    002.743    097.257    0.97257
0179      000.055    001.000    000.055    000.055    002.688    097.312    0.97312
0180      000.054    001.000    000.054    000.054    002.634    097.366    0.97366
0181      000.053    001.000    000.053    000.053    002.582    097.418    0.97418
0182      000.052    001.000    000.052    000.052    002.530    097.470    0.97470
0183      000.051    001.000    000.051    000.051    002.480    097.520    0.97520
0184      000.050    001.000    000.050    000.050    002.430    097.570    0.97570
0185      000.049    001.000    000.049    000.049    002.381    097.619    0.97619
0186      000.048    001.000    000.048    000.048    002.334    097.666    0.97666
0187      000.047    001.000    000.047    000.047    002.287    097.713    0.97713
0188      000.046    001.000    000.046    000.046    002.241    097.759    0.97759
0189      000.045    001.000    000.045    000.045    002.196    097.804    0.97804
0190      000.044    001.000    000.044    000.044    002.153    097.847    0.97847
0191      000.043    001.000    000.043    000.043    002.110    097.890    0.97890
0192      000.042    001.000    000.042    000.042    002.067    097.933    0.97933
0193      000.041    001.000    000.041    000.041    002.026    097.974    0.97974
0194      000.041    001.000    000.041    000.041    001.985    098.015    0.98015
0195      000.040    001.000    000.040    000.040    001.946    098.054    0.98054
0196      000.039    001.000    000.039    000.039    001.907    098.093    0.98093
0197      000.038    001.000    000.038    000.038    001.869    098.131    0.98131
0198      000.037    001.000    000.037    000.037    001.831    098.169    0.98169
0199      000.037    001.000    000.037    000.037    001.795    098.205    0.98205
