# Time ............. [Fri Jul 14 11:13:15 2017]
# resourcesInitial . [100]
# areaPatch ........ [30]
# agentCount ....... [1]
# consumptionRateMax [50]
# areaForaging ..... [1]
# maxTimesteps ..... [200]
# =========================================================

# Time    Density    A_Eff      R_ga       R_gt       Remain     Foraged    Percentage
0000      000.000    000.000    000.000    000.000    100.000    000.000    000.000
0001      003.333    001.000    003.333    003.333    096.667    003.333    0.03333
0002      003.222    001.000    003.222    003.222    093.444    006.556    0.06556
0003      003.115    001.000    003.115    003.115    090.330    009.670    0.09670
0004      003.011    001.000    003.011    003.011    087.319    012.681    0.12681
0005      002.911    001.000    002.911    002.911    084.408    015.592    0.15592
0006      002.814    001.000    002.814    002.814    081.594    018.406    0.18406
0007      002.720    001.000    002.720    002.720    078.875    021.125    0.21125
0008      002.629    001.000    002.629    002.629    076.245    023.755    0.23755
0009      002.542    001.000    002.542    002.542    073.704    026.296    0.26296
0010      002.457    001.000    002.457    002.457    071.247    028.753    0.28753
0011      002.375    001.000    002.375    002.375    068.872    031.128    0.31128
0012      002.296    001.000    002.296    002.296    066.576    033.424    0.33424
0013      002.219    001.000    002.219    002.219    064.357    035.643    0.35643
0014      002.145    001.000    002.145    002.145    062.212    037.788    0.37788
0015      002.074    001.000    002.074    002.074    060.138    039.862    0.39862
0016      002.005    001.000    002.005    002.005    058.134    041.866    0.41866
0017      001.938    001.000    001.938    001.938    056.196    043.804    0.43804
0018      001.873    001.000    001.873    001.873    054.323    045.677    0.45677
0019      001.811    001.000    001.811    001.811    052.512    047.488    0.47488
0020      001.750    001.000    001.750    001.750    050.762    049.238    0.49238
0021      001.692    001.000    001.692    001.692    049.069    050.931    0.50931
0022      001.636    001.000    001.636    001.636    047.434    052.566    0.52566
0023      001.581    001.000    001.581    001.581    045.853    054.147    0.54147
0024      001.528    001.000    001.528    001.528    044.324    055.676    0.55676
0025      001.477    001.000    001.477    001.477    042.847    057.153    0.57153
0026      001.428    001.000    001.428    001.428    041.419    058.581    0.58581
0027      001.381    001.000    001.381    001.381    040.038    059.962    0.59962
0028      001.335    001.000    001.335    001.335    038.703    061.297    0.61297
0029      001.290    001.000    001.290    001.290    037.413    062.587    0.62587
0030      001.247    001.000    001.247    001.247    036.166    063.834    0.63834
0031      001.206    001.000    001.206    001.206    034.961    065.039    0.65039
0032      001.165    001.000    001.165    001.165    033.795    066.205    0.66205
0033      001.127    001.000    001.127    001.127    032.669    067.331    0.67331
0034      001.089    001.000    001.089    001.089    031.580    068.420    0.68420
0035      001.053    001.000    001.053    001.053    030.527    069.473    0.69473
0036      001.018    001.000    001.018    001.018    029.510    070.490    0.70490
0037      000.984    001.000    000.984    000.984    028.526    071.474    0.71474
0038      000.951    001.000    000.951    000.951    027.575    072.425    0.72425
0039      000.919    001.000    000.919    000.919    026.656    073.344    0.73344
0040      000.889    001.000    000.889    000.889    025.767    074.233    0.74233
0041      000.859    001.000    000.859    000.859    024.908    075.092    0.75092
0042      000.830    001.000    000.830    000.830    024.078    075.922    0.75922
0043      000.803    001.000    000.803    000.803    023.276    076.724    0.76724
0044      000.776    001.000    000.776    000.776    022.500    077.500    0.77500
0045      000.750    001.000    000.750    000.750    021.750    078.250    0.78250
0046      000.725    001.000    000.725    000.725    021.025    078.975    0.78975
0047      000.701    001.000    000.701    000.701    020.324    079.676    0.79676
0048      000.677    001.000    000.677    000.677    019.646    080.354    0.80354
0049      000.655    001.000    000.655    000.655    018.992    081.008    0.81008
0050      000.633    001.000    000.633    000.633    018.358    081.642    0.81642
0051      000.612    001.000    000.612    000.612    017.747    082.253    0.82253
0052      000.592    001.000    000.592    000.592    017.155    082.845    0.82845
0053      000.572    001.000    000.572    000.572    016.583    083.417    0.83417
0054      000.553    001.000    000.553    000.553    016.030    083.970    0.83970
0055      000.534    001.000    000.534    000.534    015.496    084.504    0.84504
0056      000.517    001.000    000.517    000.517    014.980    085.020    0.85020
0057      000.499    001.000    000.499    000.499    014.480    085.520    0.85520
0058      000.483    001.000    000.483    000.483    013.998    086.002    0.86002
0059      000.467    001.000    000.467    000.467    013.531    086.469    0.86469
0060      000.451    001.000    000.451    000.451    013.080    086.920    0.86920
0061      000.436    001.000    000.436    000.436    012.644    087.356    0.87356
0062      000.421    001.000    000.421    000.421    012.222    087.778    0.87778
0063      000.407    001.000    000.407    000.407    011.815    088.185    0.88185
0064      000.394    001.000    000.394    000.394    011.421    088.579    0.88579
0065      000.381    001.000    000.381    000.381    011.040    088.960    0.88960
0066      000.368    001.000    000.368    000.368    010.672    089.328    0.89328
0067      000.356    001.000    000.356    000.356    010.317    089.683    0.89683
0068      000.344    001.000    000.344    000.344    009.973    090.027    0.90027
0069      000.332    001.000    000.332    000.332    009.640    090.360    0.90360
0070      000.321    001.000    000.321    000.321    009.319    090.681    0.90681
0071      000.311    001.000    000.311    000.311    009.008    090.992    0.90992
0072      000.300    001.000    000.300    000.300    008.708    091.292    0.91292
0073      000.290    001.000    000.290    000.290    008.418    091.582    0.91582
0074      000.281    001.000    000.281    000.281    008.137    091.863    0.91863
0075      000.271    001.000    000.271    000.271    007.866    092.134    0.92134
0076      000.262    001.000    000.262    000.262    007.604    092.396    0.92396
0077      000.253    001.000    000.253    000.253    007.350    092.650    0.92650
0078      000.245    001.000    000.245    000.245    007.105    092.895    0.92895
0079      000.237    001.000    000.237    000.237    006.869    093.131    0.93131
0080      000.229    001.000    000.229    000.229    006.640    093.360    0.93360
0081      000.221    001.000    000.221    000.221    006.418    093.582    0.93582
0082      000.214    001.000    000.214    000.214    006.204    093.796    0.93796
0083      000.207    001.000    000.207    000.207    005.997    094.003    0.94003
0084      000.200    001.000    000.200    000.200    005.798    094.202    0.94202
0085      000.193    001.000    000.193    000.193    005.604    094.396    0.94396
0086      000.187    001.000    000.187    000.187    005.418    094.582    0.94582
0087      000.181    001.000    000.181    000.181    005.237    094.763    0.94763
0088      000.175    001.000    000.175    000.175    005.062    094.938    0.94938
0089      000.169    001.000    000.169    000.169    004.894    095.106    0.95106
0090      000.163    001.000    000.163    000.163    004.730    095.270    0.95270
0091      000.158    001.000    000.158    000.158    004.573    095.427    0.95427
0092      000.152    001.000    000.152    000.152    004.420    095.580    0.95580
0093      000.147    001.000    000.147    000.147    004.273    095.727    0.95727
0094      000.142    001.000    000.142    000.142    004.131    095.869    0.95869
0095      000.138    001.000    000.138    000.138    003.993    096.007    0.96007
0096      000.133    001.000    000.133    000.133    003.860    096.140    0.96140
0097      000.129    001.000    000.129    000.129    003.731    096.269    0.96269
0098      000.124    001.000    000.124    000.124    003.607    096.393    0.96393
0099      000.120    001.000    000.120    000.120    003.487    096.513    0.96513
0100      000.116    001.000    000.116    000.116    003.370    096.630    0.96630
0101      000.112    001.000    000.112    000.112    003.258    096.742    0.96742
0102      000.109    001.000    000.109    000.109    003.149    096.851    0.96851
0103      000.105    001.000    000.105    000.105    003.044    096.956    0.96956
0104      000.101    001.000    000.101    000.101    002.943    097.057    0.97057
0105      000.098    001.000    000.098    000.098    002.845    097.155    0.97155
0106      000.095    001.000    000.095    000.095    002.750    097.250    0.97250
0107      000.092    001.000    000.092    000.092    002.658    097.342    0.97342
0108      000.089    001.000    000.089    000.089    002.570    097.430    0.97430
0109      000.086    001.000    000.086    000.086    002.484    097.516    0.97516
0110      000.083    001.000    000.083    000.083    002.401    097.599    0.97599
0111      000.080    001.000    000.080    000.080    002.321    097.679    0.97679
0112      000.077    001.000    000.077    000.077    002.244    097.756    0.97756
0113      000.075    001.000    000.075    000.075    002.169    097.831    0.97831
0114      000.072    001.000    000.072    000.072    002.097    097.903    0.97903
0115      000.070    001.000    000.070    000.070    002.027    097.973    0.97973
0116      000.068    001.000    000.068    000.068    001.959    098.041    0.98041
0117      000.065    001.000    000.065    000.065    001.894    098.106    0.98106
0118      000.063    001.000    000.063    000.063    001.831    098.169    0.98169
0119      000.061    001.000    000.061    000.061    001.770    098.230    0.98230
0120      000.059    001.000    000.059    000.059    001.711    098.289    0.98289
0121      000.057    001.000    000.057    000.057    001.654    098.346    0.98346
0122      000.055    001.000    000.055    000.055    001.599    098.401    0.98401
0123      000.053    001.000    000.053    000.053    001.545    098.455    0.98455
0124      000.052    001.000    000.052    000.052    001.494    098.506    0.98506
0125      000.050    001.000    000.050    000.050    001.444    098.556    0.98556
0126      000.048    001.000    000.048    000.048    001.396    098.604    0.98604
0127      000.047    001.000    000.047    000.047    001.349    098.651    0.98651
0128      000.045    001.000    000.045    000.045    001.304    098.696    0.98696
0129      000.043    001.000    000.043    000.043    001.261    098.739    0.98739
0130      000.042    001.000    000.042    000.042    001.219    098.781    0.98781
0131      000.041    001.000    000.041    000.041    001.178    098.822    0.98822
0132      000.039    001.000    000.039    000.039    001.139    098.861    0.98861
0133      000.038    001.000    000.038    000.038    001.101    098.899    0.98899
0134      000.037    001.000    000.037    000.037    001.064    098.936    0.98936
0135      000.035    001.000    000.035    000.035    001.029    098.971    0.98971
0136      000.034    001.000    000.034    000.034    000.995    099.005    0.99005
0137      000.033    001.000    000.033    000.033    000.961    099.039    0.99039
0138      000.032    001.000    000.032    000.032    000.929    099.071    0.99071
0139      000.031    001.000    000.031    000.031    000.898    099.102    0.99102
0140      000.030    001.000    000.030    000.030    000.868    099.132    0.99132
0141      000.029    001.000    000.029    000.029    000.840    099.160    0.99160
0142      000.028    001.000    000.028    000.028    000.812    099.188    0.99188
0143      000.027    001.000    000.027    000.027    000.784    099.216    0.99216
0144      000.026    001.000    000.026    000.026    000.758    099.242    0.99242
0145      000.025    001.000    000.025    000.025    000.733    099.267    0.99267
0146      000.024    001.000    000.024    000.024    000.709    099.291    0.99291
0147      000.024    001.000    000.024    000.024    000.685    099.315    0.99315
0148      000.023    001.000    000.023    000.023    000.662    099.338    0.99338
0149      000.022    001.000    000.022    000.022    000.640    099.360    0.99360
0150      000.021    001.000    000.021    000.021    000.619    099.381    0.99381
0151      000.021    001.000    000.021    000.021    000.598    099.402    0.99402
0152      000.020    001.000    000.020    000.020    000.578    099.422    0.99422
0153      000.019    001.000    000.019    000.019    000.559    099.441    0.99441
0154      000.019    001.000    000.019    000.019    000.540    099.460    0.99460
0155      000.018    001.000    000.018    000.018    000.522    099.478    0.99478
0156      000.017    001.000    000.017    000.017    000.505    099.495    0.99495
0157      000.017    001.000    000.017    000.017    000.488    099.512    0.99512
0158      000.016    001.000    000.016    000.016    000.472    099.528    0.99528
0159      000.016    001.000    000.016    000.016    000.456    099.544    0.99544
0160      000.015    001.000    000.015    000.015    000.441    099.559    0.99559
0161      000.015    001.000    000.015    000.015    000.426    099.574    0.99574
0162      000.014    001.000    000.014    000.014    000.412    099.588    0.99588
0163      000.014    001.000    000.014    000.014    000.398    099.602    0.99602
0164      000.013    001.000    000.013    000.013    000.385    099.615    0.99615
0165      000.013    001.000    000.013    000.013    000.372    099.628    0.99628
0166      000.012    001.000    000.012    000.012    000.360    099.640    0.99640
0167      000.012    001.000    000.012    000.012    000.348    099.652    0.99652
0168      000.012    001.000    000.012    000.012    000.336    099.664    0.99664
0169      000.011    001.000    000.011    000.011    000.325    099.675    0.99675
0170      000.011    001.000    000.011    000.011    000.314    099.686    0.99686
0171      000.010    001.000    000.010    000.010    000.304    099.696    0.99696
0172      000.010    001.000    000.010    000.010    000.293    099.707    0.99707
0173      000.010    001.000    000.010    000.010    000.284    099.716    0.99716
0174      000.009    001.000    000.009    000.009    000.274    099.726    0.99726
0175      000.009    001.000    000.009    000.009    000.265    099.735    0.99735
0176      000.009    001.000    000.009    000.009    000.256    099.744    0.99744
0177      000.009    001.000    000.009    000.009    000.248    099.752    0.99752
0178      000.008    001.000    000.008    000.008    000.239    099.761    0.99761
0179      000.008    001.000    000.008    000.008    000.231    099.769    0.99769
0180      000.008    001.000    000.008    000.008    000.224    099.776    0.99776
0181      000.007    001.000    000.007    000.007    000.216    099.784    0.99784
0182      000.007    001.000    000.007    000.007    000.209    099.791    0.99791
0183      000.007    001.000    000.007    000.007    000.202    099.798    0.99798
0184      000.007    001.000    000.007    000.007    000.195    099.805    0.99805
0185      000.007    001.000    000.007    000.007    000.189    099.811    0.99811
0186      000.006    001.000    000.006    000.006    000.183    099.817    0.99817
0187      000.006    001.000    000.006    000.006    000.177    099.823    0.99823
0188      000.006    001.000    000.006    000.006    000.171    099.829    0.99829
0189      000.006    001.000    000.006    000.006    000.165    099.835    0.99835
0190      000.005    001.000    000.005    000.005    000.159    099.841    0.99841
0191      000.005    001.000    000.005    000.005    000.154    099.846    0.99846
0192      000.005    001.000    000.005    000.005    000.149    099.851    0.99851
0193      000.005    001.000    000.005    000.005    000.144    099.856    0.99856
0194      000.005    001.000    000.005    000.005    000.139    099.861    0.99861
0195      000.005    001.000    000.005    000.005    000.135    099.865    0.99865
0196      000.004    001.000    000.004    000.004    000.130    099.870    0.99870
0197      000.004    001.000    000.004    000.004    000.126    099.874    0.99874
0198      000.004    001.000    000.004    000.004    000.122    099.878    0.99878
0199      000.004    001.000    000.004    000.004    000.118    099.882    0.99882
