# Time ............. [Fri Jul 14 11:14:06 2017]
# resourcesInitial . [50]
# areaPatch ........ [50]
# agentCount ....... [1]
# consumptionRateMax [50]
# areaForaging ..... [1]
# maxTimesteps ..... [200]
# =========================================================

# Time    Density    A_Eff      R_ga       R_gt       Remain     Foraged    Percentage
0000      000.000    000.000    000.000    000.000    050.000    000.000    000.000
0001      001.000    001.000    001.000    001.000    049.000    001.000    0.02000
0002      000.980    001.000    000.980    000.980    048.020    001.980    0.03960
0003      000.960    001.000    000.960    000.960    047.060    002.940    0.05881
0004      000.941    001.000    000.941    000.941    046.118    003.882    0.07763
0005      000.922    001.000    000.922    000.922    045.196    004.804    0.09608
0006      000.904    001.000    000.904    000.904    044.292    005.708    0.11416
0007      000.886    001.000    000.886    000.886    043.406    006.594    0.13187
0008      000.868    001.000    000.868    000.868    042.538    007.462    0.14924
0009      000.851    001.000    000.851    000.851    041.687    008.313    0.16625
0010      000.834    001.000    000.834    000.834    040.854    009.146    0.18293
0011      000.817    001.000    000.817    000.817    040.037    009.963    0.19927
0012      000.801    001.000    000.801    000.801    039.236    010.764    0.21528
0013      000.785    001.000    000.785    000.785    038.451    011.549    0.23098
0014      000.769    001.000    000.769    000.769    037.682    012.318    0.24636
0015      000.754    001.000    000.754    000.754    036.928    013.072    0.26143
0016      000.739    001.000    000.739    000.739    036.190    013.810    0.27620
0017      000.724    001.000    000.724    000.724    035.466    014.534    0.29068
0018      000.709    001.000    000.709    000.709    034.757    015.243    0.30486
0019      000.695    001.000    000.695    000.695    034.062    015.938    0.31877
0020      000.681    001.000    000.681    000.681    033.380    016.620    0.33239
0021      000.668    001.000    000.668    000.668    032.713    017.287    0.34574
0022      000.654    001.000    000.654    000.654    032.059    017.941    0.35883
0023      000.641    001.000    000.641    000.641    031.417    018.583    0.37165
0024      000.628    001.000    000.628    000.628    030.789    019.211    0.38422
0025      000.616    001.000    000.616    000.616    030.173    019.827    0.39654
0026      000.603    001.000    000.603    000.603    029.570    020.430    0.40860
0027      000.591    001.000    000.591    000.591    028.978    021.022    0.42043
0028      000.580    001.000    000.580    000.580    028.399    021.601    0.43202
0029      000.568    001.000    000.568    000.568    027.831    022.169    0.44338
0030      000.557    001.000    000.557    000.557    027.274    022.726    0.45452
0031      000.545    001.000    000.545    000.545    026.729    023.271    0.46543
0032      000.535    001.000    000.535    000.535    026.194    023.806    0.47612
0033      000.524    001.000    000.524    000.524    025.670    024.330    0.48659
0034      000.513    001.000    000.513    000.513    025.157    024.843    0.49686
0035      000.503    001.000    000.503    000.503    024.654    025.346    0.50693
0036      000.493    001.000    000.493    000.493    024.161    025.839    0.51679
0037      000.483    001.000    000.483    000.483    023.677    026.323    0.52645
0038      000.474    001.000    000.474    000.474    023.204    026.796    0.53592
0039      000.464    001.000    000.464    000.464    022.740    027.260    0.54520
0040      000.455    001.000    000.455    000.455    022.285    027.715    0.55430
0041      000.446    001.000    000.446    000.446    021.839    028.161    0.56321
0042      000.437    001.000    000.437    000.437    021.403    028.597    0.57195
0043      000.428    001.000    000.428    000.428    020.974    029.026    0.58051
0044      000.419    001.000    000.419    000.419    020.555    029.445    0.58890
0045      000.411    001.000    000.411    000.411    020.144    029.856    0.59712
0046      000.403    001.000    000.403    000.403    019.741    030.259    0.60518
0047      000.395    001.000    000.395    000.395    019.346    030.654    0.61308
0048      000.387    001.000    000.387    000.387    018.959    031.041    0.62081
0049      000.379    001.000    000.379    000.379    018.580    031.420    0.62840
0050      000.372    001.000    000.372    000.372    018.208    031.792    0.63583
0051      000.364    001.000    000.364    000.364    017.844    032.156    0.64311
0052      000.357    001.000    000.357    000.357    017.487    032.513    0.65025
0053      000.350    001.000    000.350    000.350    017.138    032.862    0.65725
0054      000.343    001.000    000.343    000.343    016.795    033.205    0.66410
0055      000.336    001.000    000.336    000.336    016.459    033.541    0.67082
0056      000.329    001.000    000.329    000.329    016.130    033.870    0.67740
0057      000.323    001.000    000.323    000.323    015.807    034.193    0.68386
0058      000.316    001.000    000.316    000.316    015.491    034.509    0.69018
0059      000.310    001.000    000.310    000.310    015.181    034.819    0.69637
0060      000.304    001.000    000.304    000.304    014.878    035.122    0.70245
0061      000.298    001.000    000.298    000.298    014.580    035.420    0.70840
0062      000.292    001.000    000.292    000.292    014.289    035.711    0.71423
0063      000.286    001.000    000.286    000.286    014.003    035.997    0.71995
0064      000.280    001.000    000.280    000.280    013.723    036.277    0.72555
0065      000.274    001.000    000.274    000.274    013.448    036.552    0.73104
0066      000.269    001.000    000.269    000.269    013.179    036.821    0.73641
0067      000.264    001.000    000.264    000.264    012.916    037.084    0.74169
0068      000.258    001.000    000.258    000.258    012.657    037.343    0.74685
0069      000.253    001.000    000.253    000.253    012.404    037.596    0.75192
0070      000.248    001.000    000.248    000.248    012.156    037.844    0.75688
0071      000.243    001.000    000.243    000.243    011.913    038.087    0.76174
0072      000.238    001.000    000.238    000.238    011.675    038.325    0.76651
0073      000.233    001.000    000.233    000.233    011.441    038.559    0.77117
0074      000.229    001.000    000.229    000.229    011.212    038.788    0.77575
0075      000.224    001.000    000.224    000.224    010.988    039.012    0.78024
0076      000.220    001.000    000.220    000.220    010.768    039.232    0.78463
0077      000.215    001.000    000.215    000.215    010.553    039.447    0.78894
0078      000.211    001.000    000.211    000.211    010.342    039.658    0.79316
0079      000.207    001.000    000.207    000.207    010.135    039.865    0.79730
0080      000.203    001.000    000.203    000.203    009.932    040.068    0.80135
0081      000.199    001.000    000.199    000.199    009.734    040.266    0.80532
0082      000.195    001.000    000.195    000.195    009.539    040.461    0.80922
0083      000.191    001.000    000.191    000.191    009.348    040.652    0.81303
0084      000.187    001.000    000.187    000.187    009.161    040.839    0.81677
0085      000.183    001.000    000.183    000.183    008.978    041.022    0.82044
0086      000.180    001.000    000.180    000.180    008.799    041.201    0.82403
0087      000.176    001.000    000.176    000.176    008.623    041.377    0.82755
0088      000.172    001.000    000.172    000.172    008.450    041.550    0.83100
0089      000.169    001.000    000.169    000.169    008.281    041.719    0.83438
0090      000.166    001.000    000.166    000.166    008.116    041.884    0.83769
0091      000.162    001.000    000.162    000.162    007.953    042.047    0.84094
0092      000.159    001.000    000.159    000.159    007.794    042.206    0.84412
0093      000.156    001.000    000.156    000.156    007.638    042.362    0.84723
0094      000.153    001.000    000.153    000.153    007.486    042.514    0.85029
0095      000.150    001.000    000.150    000.150    007.336    042.664    0.85328
0096      000.147    001.000    000.147    000.147    007.189    042.811    0.85622
0097      000.144    001.000    000.144    000.144    007.045    042.955    0.85909
0098      000.141    001.000    000.141    000.141    006.904    043.096    0.86191
0099      000.138    001.000    000.138    000.138    006.766    043.234    0.86467
0100      000.135    001.000    000.135    000.135    006.631    043.369    0.86738
0101      000.133    001.000    000.133    000.133    006.498    043.502    0.87003
0102      000.130    001.000    000.130    000.130    006.368    043.632    0.87263
0103      000.127    001.000    000.127    000.127    006.241    043.759    0.87518
0104      000.125    001.000    000.125    000.125    006.116    043.884    0.87768
0105      000.122    001.000    000.122    000.122    005.994    044.006    0.88012
0106      000.120    001.000    000.120    000.120    005.874    044.126    0.88252
0107      000.117    001.000    000.117    000.117    005.757    044.243    0.88487
0108      000.115    001.000    000.115    000.115    005.641    044.359    0.88717
0109      000.113    001.000    000.113    000.113    005.529    044.471    0.88943
0110      000.111    001.000    000.111    000.111    005.418    044.582    0.89164
0111      000.108    001.000    000.108    000.108    005.310    044.690    0.89381
0112      000.106    001.000    000.106    000.106    005.203    044.797    0.89593
0113      000.104    001.000    000.104    000.104    005.099    044.901    0.89801
0114      000.102    001.000    000.102    000.102    004.997    045.003    0.90005
0115      000.100    001.000    000.100    000.100    004.897    045.103    0.90205
0116      000.098    001.000    000.098    000.098    004.799    045.201    0.90401
0117      000.096    001.000    000.096    000.096    004.703    045.297    0.90593
0118      000.094    001.000    000.094    000.094    004.609    045.391    0.90781
0119      000.092    001.000    000.092    000.092    004.517    045.483    0.90966
0120      000.090    001.000    000.090    000.090    004.427    045.573    0.91146
0121      000.089    001.000    000.089    000.089    004.338    045.662    0.91323
0122      000.087    001.000    000.087    000.087    004.252    045.748    0.91497
0123      000.085    001.000    000.085    000.085    004.167    045.833    0.91667
0124      000.083    001.000    000.083    000.083    004.083    045.917    0.91834
0125      000.082    001.000    000.082    000.082    004.002    045.998    0.91997
0126      000.080    001.000    000.080    000.080    003.922    046.078    0.92157
0127      000.078    001.000    000.078    000.078    003.843    046.157    0.92314
0128      000.077    001.000    000.077    000.077    003.766    046.234    0.92468
0129      000.075    001.000    000.075    000.075    003.691    046.309    0.92618
0130      000.074    001.000    000.074    000.074    003.617    046.383    0.92766
0131      000.072    001.000    000.072    000.072    003.545    046.455    0.92910
0132      000.071    001.000    000.071    000.071    003.474    046.526    0.93052
0133      000.069    001.000    000.069    000.069    003.404    046.596    0.93191
0134      000.068    001.000    000.068    000.068    003.336    046.664    0.93327
0135      000.067    001.000    000.067    000.067    003.270    046.730    0.93461
0136      000.065    001.000    000.065    000.065    003.204    046.796    0.93592
0137      000.064    001.000    000.064    000.064    003.140    046.860    0.93720
0138      000.063    001.000    000.063    000.063    003.077    046.923    0.93845
0139      000.062    001.000    000.062    000.062    003.016    046.984    0.93969
0140      000.060    001.000    000.060    000.060    002.955    047.045    0.94089
0141      000.059    001.000    000.059    000.059    002.896    047.104    0.94207
0142      000.058    001.000    000.058    000.058    002.838    047.162    0.94323
0143      000.057    001.000    000.057    000.057    002.782    047.218    0.94437
0144      000.056    001.000    000.056    000.056    002.726    047.274    0.94548
0145      000.055    001.000    000.055    000.055    002.671    047.329    0.94657
0146      000.053    001.000    000.053    000.053    002.618    047.382    0.94764
0147      000.052    001.000    000.052    000.052    002.566    047.434    0.94869
0148      000.051    001.000    000.051    000.051    002.514    047.486    0.94971
0149      000.050    001.000    000.050    000.050    002.464    047.536    0.95072
0150      000.049    001.000    000.049    000.049    002.415    047.585    0.95170
0151      000.048    001.000    000.048    000.048    002.367    047.633    0.95267
0152      000.047    001.000    000.047    000.047    002.319    047.681    0.95362
0153      000.046    001.000    000.046    000.046    002.273    047.727    0.95454
0154      000.045    001.000    000.045    000.045    002.227    047.773    0.95545
0155      000.045    001.000    000.045    000.045    002.183    047.817    0.95634
0156      000.044    001.000    000.044    000.044    002.139    047.861    0.95722
0157      000.043    001.000    000.043    000.043    002.096    047.904    0.95807
0158      000.042    001.000    000.042    000.042    002.054    047.946    0.95891
0159      000.041    001.000    000.041    000.041    002.013    047.987    0.95973
0160      000.040    001.000    000.040    000.040    001.973    048.027    0.96054
0161      000.039    001.000    000.039    000.039    001.934    048.066    0.96133
0162      000.039    001.000    000.039    000.039    001.895    048.105    0.96210
0163      000.038    001.000    000.038    000.038    001.857    048.143    0.96286
0164      000.037    001.000    000.037    000.037    001.820    048.180    0.96360
0165      000.036    001.000    000.036    000.036    001.783    048.217    0.96433
0166      000.036    001.000    000.036    000.036    001.748    048.252    0.96504
0167      000.035    001.000    000.035    000.035    001.713    048.287    0.96574
0168      000.034    001.000    000.034    000.034    001.679    048.321    0.96643
0169      000.034    001.000    000.034    000.034    001.645    048.355    0.96710
0170      000.033    001.000    000.033    000.033    001.612    048.388    0.96776
0171      000.032    001.000    000.032    000.032    001.580    048.420    0.96840
0172      000.032    001.000    000.032    000.032    001.548    048.452    0.96903
0173      000.031    001.000    000.031    000.031    001.517    048.483    0.96965
0174      000.030    001.000    000.030    000.030    001.487    048.513    0.97026
0175      000.030    001.000    000.030    000.030    001.457    048.543    0.97086
0176      000.029    001.000    000.029    000.029    001.428    048.572    0.97144
0177      000.029    001.000    000.029    000.029    001.400    048.600    0.97201
0178      000.028    001.000    000.028    000.028    001.372    048.628    0.97257
0179      000.027    001.000    000.027    000.027    001.344    048.656    0.97312
0180      000.027    001.000    000.027    000.027    001.317    048.683    0.97366
0181      000.026    001.000    000.026    000.026    001.291    048.709    0.97418
0182      000.026    001.000    000.026    000.026    001.265    048.735    0.97470
0183      000.025    001.000    000.025    000.025    001.240    048.760    0.97520
0184      000.025    001.000    000.025    000.025    001.215    048.785    0.97570
0185      000.024    001.000    000.024    000.024    001.191    048.809    0.97619
0186      000.024    001.000    000.024    000.024    001.167    048.833    0.97666
0187      000.023    001.000    000.023    000.023    001.144    048.856    0.97713
0188      000.023    001.000    000.023    000.023    001.121    048.879    0.97759
0189      000.022    001.000    000.022    000.022    001.098    048.902    0.97804
0190      000.022    001.000    000.022    000.022    001.076    048.924    0.97847
0191      000.022    001.000    000.022    000.022    001.055    048.945    0.97890
0192      000.021    001.000    000.021    000.021    001.034    048.966    0.97933
0193      000.021    001.000    000.021    000.021    001.013    048.987    0.97974
0194      000.020    001.000    000.020    000.020    000.993    049.007    0.98015
0195      000.020    001.000    000.020    000.020    000.973    049.027    0.98054
0196      000.019    001.000    000.019    000.019    000.953    049.047    0.98093
0197      000.019    001.000    000.019    000.019    000.934    049.066    0.98131
0198      000.019    001.000    000.019    000.019    000.916    049.084    0.98169
0199      000.018    001.000    000.018    000.018    000.897    049.103    0.98205
