# Time ............. [Fri Jul 14 11:14:29 2017]
# resourcesInitial . [50]
# areaPatch ........ [10]
# agentCount ....... [1]
# consumptionRateMax [50]
# areaForaging ..... [1]
# maxTimesteps ..... [200]
# =========================================================

# Time    Density    A_Eff      R_ga       R_gt       Remain     Foraged    Percentage
0000      000.000    000.000    000.000    000.000    050.000    000.000    000.000
0001      005.000    001.000    005.000    005.000    045.000    005.000    0.10000
0002      004.500    001.000    004.500    004.500    040.500    009.500    0.19000
0003      004.050    001.000    004.050    004.050    036.450    013.550    0.27100
0004      003.645    001.000    003.645    003.645    032.805    017.195    0.34390
0005      003.280    001.000    003.280    003.280    029.524    020.476    0.40951
0006      002.952    001.000    002.952    002.952    026.572    023.428    0.46856
0007      002.657    001.000    002.657    002.657    023.915    026.085    0.52170
0008      002.391    001.000    002.391    002.391    021.523    028.477    0.56953
0009      002.152    001.000    002.152    002.152    019.371    030.629    0.61258
0010      001.937    001.000    001.937    001.937    017.434    032.566    0.65132
0011      001.743    001.000    001.743    001.743    015.691    034.309    0.68619
0012      001.569    001.000    001.569    001.569    014.121    035.879    0.71757
0013      001.412    001.000    001.412    001.412    012.709    037.291    0.74581
0014      001.271    001.000    001.271    001.271    011.438    038.562    0.77123
0015      001.144    001.000    001.144    001.144    010.295    039.705    0.79411
0016      001.029    001.000    001.029    001.029    009.265    040.735    0.81470
0017      000.927    001.000    000.927    000.927    008.339    041.661    0.83323
0018      000.834    001.000    000.834    000.834    007.505    042.495    0.84991
0019      000.750    001.000    000.750    000.750    006.754    043.246    0.86491
0020      000.675    001.000    000.675    000.675    006.079    043.921    0.87842
0021      000.608    001.000    000.608    000.608    005.471    044.529    0.89058
0022      000.547    001.000    000.547    000.547    004.924    045.076    0.90152
0023      000.492    001.000    000.492    000.492    004.431    045.569    0.91137
0024      000.443    001.000    000.443    000.443    003.988    046.012    0.92023
0025      000.399    001.000    000.399    000.399    003.589    046.411    0.92821
0026      000.359    001.000    000.359    000.359    003.231    046.769    0.93539
0027      000.323    001.000    000.323    000.323    002.907    047.093    0.94185
0028      000.291    001.000    000.291    000.291    002.617    047.383    0.94767
0029      000.262    001.000    000.262    000.262    002.355    047.645    0.95290
0030      000.236    001.000    000.236    000.236    002.120    047.880    0.95761
0031      000.212    001.000    000.212    000.212    001.908    048.092    0.96185
0032      000.191    001.000    000.191    000.191    001.717    048.283    0.96566
0033      000.172    001.000    000.172    000.172    001.545    048.455    0.96910
0034      000.155    001.000    000.155    000.155    001.391    048.609    0.97219
0035      000.139    001.000    000.139    000.139    001.252    048.748    0.97497
0036      000.125    001.000    000.125    000.125    001.126    048.874    0.97747
0037      000.113    001.000    000.113    000.113    001.014    048.986    0.97972
0038      000.101    001.000    000.101    000.101    000.912    049.088    0.98175
0039      000.091    001.000    000.091    000.091    000.821    049.179    0.98358
0040      000.082    001.000    000.082    000.082    000.739    049.261    0.98522
0041      000.074    001.000    000.074    000.074    000.665    049.335    0.98670
0042      000.067    001.000    000.067    000.067    000.599    049.401    0.98803
0043      000.060    001.000    000.060    000.060    000.539    049.461    0.98922
0044      000.054    001.000    000.054    000.054    000.485    049.515    0.99030
0045      000.048    001.000    000.048    000.048    000.436    049.564    0.99127
0046      000.044    001.000    000.044    000.044    000.393    049.607    0.99214
0047      000.039    001.000    000.039    000.039    000.353    049.647    0.99293
0048      000.035    001.000    000.035    000.035    000.318    049.682    0.99364
0049      000.032    001.000    000.032    000.032    000.286    049.714    0.99427
0050      000.029    001.000    000.029    000.029    000.258    049.742    0.99485
0051      000.026    001.000    000.026    000.026    000.232    049.768    0.99536
0052      000.023    001.000    000.023    000.023    000.209    049.791    0.99583
0053      000.021    001.000    000.021    000.021    000.188    049.812    0.99624
0054      000.019    001.000    000.019    000.019    000.169    049.831    0.99662
0055      000.017    001.000    000.017    000.017    000.152    049.848    0.99696
0056      000.015    001.000    000.015    000.015    000.137    049.863    0.99726
0057      000.014    001.000    000.014    000.014    000.123    049.877    0.99753
0058      000.012    001.000    000.012    000.012    000.111    049.889    0.99778
0059      000.011    001.000    000.011    000.011    000.100    049.900    0.99800
0060      000.010    001.000    000.010    000.010    000.090    049.910    0.99820
0061      000.009    001.000    000.009    000.009    000.081    049.919    0.99838
0062      000.008    001.000    000.008    000.008    000.073    049.927    0.99854
0063      000.007    001.000    000.007    000.007    000.066    049.934    0.99869
0064      000.007    001.000    000.007    000.007    000.059    049.941    0.99882
0065      000.006    001.000    000.006    000.006    000.053    049.947    0.99894
0066      000.005    001.000    000.005    000.005    000.048    049.952    0.99904
0067      000.005    001.000    000.005    000.005    000.043    049.957    0.99914
0068      000.004    001.000    000.004    000.004    000.039    049.961    0.99923
0069      000.004    001.000    000.004    000.004    000.035    049.965    0.99930
0070      000.003    001.000    000.003    000.003    000.031    049.969    0.99937
0071      000.003    001.000    000.003    000.003    000.028    049.972    0.99944
0072      000.003    001.000    000.003    000.003    000.025    049.975    0.99949
0073      000.003    001.000    000.003    000.003    000.023    049.977    0.99954
0074      000.002    001.000    000.002    000.002    000.021    049.979    0.99959
0075      000.002    001.000    000.002    000.002    000.018    049.982    0.99963
0076      000.002    001.000    000.002    000.002    000.017    049.983    0.99967
0077      000.002    001.000    000.002    000.002    000.015    049.985    0.99970
0078      000.001    001.000    000.001    000.001    000.013    049.987    0.99973
0079      000.001    001.000    000.001    000.001    000.012    049.988    0.99976
0080      000.001    001.000    000.001    000.001    000.011    049.989    0.99978
0081      000.001    001.000    000.001    000.001    000.010    049.990    0.99980
0082      000.001    001.000    000.001    000.001    000.009    049.991    0.99982
0083      000.001    001.000    000.001    000.001    000.008    049.992    0.99984
0084      000.001    001.000    000.001    000.001    000.007    049.993    0.99986
0085      000.001    001.000    000.001    000.001    000.006    049.994    0.99987
0086      000.001    001.000    000.001    000.001    000.006    049.994    0.99988
0087      000.001    001.000    000.001    000.001    000.005    049.995    0.99990
0088      000.001    001.000    000.001    000.001    000.005    049.995    0.99991
0089      000.000    001.000    000.000    000.000    000.004    049.996    0.99992
0090      000.000    001.000    000.000    000.000    000.004    049.996    0.99992
0091      000.000    001.000    000.000    000.000    000.003    049.997    0.99993
0092      000.000    001.000    000.000    000.000    000.003    049.997    0.99994
0093      000.000    001.000    000.000    000.000    000.003    049.997    0.99994
0094      000.000    001.000    000.000    000.000    000.002    049.998    0.99995
0095      000.000    001.000    000.000    000.000    000.002    049.998    0.99996
0096      000.000    001.000    000.000    000.000    000.002    049.998    0.99996
0097      000.000    001.000    000.000    000.000    000.002    049.998    0.99996
0098      000.000    001.000    000.000    000.000    000.002    049.998    0.99997
0099      000.000    001.000    000.000    000.000    000.001    049.999    0.99997
0100      000.000    001.000    000.000    000.000    000.001    049.999    0.99997
0101      000.000    001.000    000.000    000.000    000.001    049.999    0.99998
0102      000.000    001.000    000.000    000.000    000.001    049.999    0.99998
0103      000.000    001.000    000.000    000.000    000.001    049.999    0.99998
0104      000.000    001.000    000.000    000.000    000.001    049.999    0.99998
0105      000.000    001.000    000.000    000.000    000.001    049.999    0.99998
0106      000.000    001.000    000.000    000.000    000.001    049.999    0.99999
0107      000.000    001.000    000.000    000.000    000.001    049.999    0.99999
0108      000.000    001.000    000.000    000.000    000.001    049.999    0.99999
0109      000.000    001.000    000.000    000.000    000.001    049.999    0.99999
0110      000.000    001.000    000.000    000.000    000.000    050.000    0.99999
0111      000.000    001.000    000.000    000.000    000.000    050.000    0.99999
0112      000.000    001.000    000.000    000.000    000.000    050.000    0.99999
0113      000.000    001.000    000.000    000.000    000.000    050.000    0.99999
0114      000.000    001.000    000.000    000.000    000.000    050.000    0.99999
0115      000.000    001.000    000.000    000.000    000.000    050.000    0.99999
0116      000.000    001.000    000.000    000.000    000.000    050.000    1.00000
0117      000.000    001.000    000.000    000.000    000.000    050.000    1.00000
0118      000.000    001.000    000.000    000.000    000.000    050.000    1.00000
0119      000.000    001.000    000.000    000.000    000.000    050.000    1.00000
0120      000.000    001.000    000.000    000.000    000.000    050.000    1.00000
0121      000.000    001.000    000.000    000.000    000.000    050.000    1.00000
0122      000.000    001.000    000.000    000.000    000.000    050.000    1.00000
0123      000.000    001.000    000.000    000.000    000.000    050.000    1.00000
0124      000.000    001.000    000.000    000.000    000.000    050.000    1.00000
0125      000.000    001.000    000.000    000.000    000.000    050.000    1.00000
0126      000.000    001.000    000.000    000.000    000.000    050.000    1.00000
0127      000.000    001.000    000.000    000.000    000.000    050.000    1.00000
0128      000.000    001.000    000.000    000.000    000.000    050.000    1.00000
0129      000.000    001.000    000.000    000.000    000.000    050.000    1.00000
0130      000.000    001.000    000.000    000.000    000.000    050.000    1.00000
0131      000.000    001.000    000.000    000.000    000.000    050.000    1.00000
0132      000.000    001.000    000.000    000.000    000.000    050.000    1.00000
0133      000.000    001.000    000.000    000.000    000.000    050.000    1.00000
0134      000.000    001.000    000.000    000.000    000.000    050.000    1.00000
0135      000.000    001.000    000.000    000.000    000.000    050.000    1.00000
0136      000.000    001.000    000.000    000.000    000.000    050.000    1.00000
0137      000.000    001.000    000.000    000.000    000.000    050.000    1.00000
0138      000.000    001.000    000.000    000.000    000.000    050.000    1.00000
0139      000.000    001.000    000.000    000.000    000.000    050.000    1.00000
0140      000.000    001.000    000.000    000.000    000.000    050.000    1.00000
0141      000.000    001.000    000.000    000.000    000.000    050.000    1.00000
0142      000.000    001.000    000.000    000.000    000.000    050.000    1.00000
0143      000.000    001.000    000.000    000.000    000.000    050.000    1.00000
0144      000.000    001.000    000.000    000.000    000.000    050.000    1.00000
0145      000.000    001.000    000.000    000.000    000.000    050.000    1.00000
0146      000.000    001.000    000.000    000.000    000.000    050.000    1.00000
0147      000.000    001.000    000.000    000.000    000.000    050.000    1.00000
0148      000.000    001.000    000.000    000.000    000.000    050.000    1.00000
0149      000.000    001.000    000.000    000.000    000.000    050.000    1.00000
0150      000.000    001.000    000.000    000.000    000.000    050.000    1.00000
0151      000.000    001.000    000.000    000.000    000.000    050.000    1.00000
0152      000.000    001.000    000.000    000.000    000.000    050.000    1.00000
0153      000.000    001.000    000.000    000.000    000.000    050.000    1.00000
0154      000.000    001.000    000.000    000.000    000.000    050.000    1.00000
0155      000.000    001.000    000.000    000.000    000.000    050.000    1.00000
0156      000.000    001.000    000.000    000.000    000.000    050.000    1.00000
0157      000.000    001.000    000.000    000.000    000.000    050.000    1.00000
0158      000.000    001.000    000.000    000.000    000.000    050.000    1.00000
0159      000.000    001.000    000.000    000.000    000.000    050.000    1.00000
0160      000.000    001.000    000.000    000.000    000.000    050.000    1.00000
0161      000.000    001.000    000.000    000.000    000.000    050.000    1.00000
0162      000.000    001.000    000.000    000.000    000.000    050.000    1.00000
0163      000.000    001.000    000.000    000.000    000.000    050.000    1.00000
0164      000.000    001.000    000.000    000.000    000.000    050.000    1.00000
0165      000.000    001.000    000.000    000.000    000.000    050.000    1.00000
0166      000.000    001.000    000.000    000.000    000.000    050.000    1.00000
0167      000.000    001.000    000.000    000.000    000.000    050.000    1.00000
0168      000.000    001.000    000.000    000.000    000.000    050.000    1.00000
0169      000.000    001.000    000.000    000.000    000.000    050.000    1.00000
0170      000.000    001.000    000.000    000.000    000.000    050.000    1.00000
0171      000.000    001.000    000.000    000.000    000.000    050.000    1.00000
0172      000.000    001.000    000.000    000.000    000.000    050.000    1.00000
0173      000.000    001.000    000.000    000.000    000.000    050.000    1.00000
0174      000.000    001.000    000.000    000.000    000.000    050.000    1.00000
0175      000.000    001.000    000.000    000.000    000.000    050.000    1.00000
0176      000.000    001.000    000.000    000.000    000.000    050.000    1.00000
0177      000.000    001.000    000.000    000.000    000.000    050.000    1.00000
0178      000.000    001.000    000.000    000.000    000.000    050.000    1.00000
0179      000.000    001.000    000.000    000.000    000.000    050.000    1.00000
0180      000.000    001.000    000.000    000.000    000.000    050.000    1.00000
0181      000.000    001.000    000.000    000.000    000.000    050.000    1.00000
0182      000.000    001.000    000.000    000.000    000.000    050.000    1.00000
0183      000.000    001.000    000.000    000.000    000.000    050.000    1.00000
0184      000.000    001.000    000.000    000.000    000.000    050.000    1.00000
0185      000.000    001.000    000.000    000.000    000.000    050.000    1.00000
0186      000.000    001.000    000.000    000.000    000.000    050.000    1.00000
0187      000.000    001.000    000.000    000.000    000.000    050.000    1.00000
0188      000.000    001.000    000.000    000.000    000.000    050.000    1.00000
0189      000.000    001.000    000.000    000.000    000.000    050.000    1.00000
0190      000.000    001.000    000.000    000.000    000.000    050.000    1.00000
0191      000.000    001.000    000.000    000.000    000.000    050.000    1.00000
0192      000.000    001.000    000.000    000.000    000.000    050.000    1.00000
0193      000.000    001.000    000.000    000.000    000.000    050.000    1.00000
0194      000.000    001.000    000.000    000.000    000.000    050.000    1.00000
0195      000.000    001.000    000.000    000.000    000.000    050.000    1.00000
0196      000.000    001.000    000.000    000.000    000.000    050.000    1.00000
0197      000.000    001.000    000.000    000.000    000.000    050.000    1.00000
0198      000.000    001.000    000.000    000.000    000.000    050.000    1.00000
0199      000.000    001.000    000.000    000.000    000.000    050.000    1.00000
